 Gaussian 16, Revision C.01,
 Gaussian 16:  EM64L-G16RevC.01  3-Jul-2019

 ----------------------------------------------------------------------
 # HF 6-31G(d) scf=nosymm test pop=MK iop(6/33=2) iop(6/42=6) geom=dist
 ance
 ----------------------------------------------------------------------

 ---------------
 conformer 2 ESP
 ---------------
 Symbolic Z-matrix:
 Charge =  0 Multiplicity = 1

                         Standard orientation:
 ---------------------------------------------------------------------
 Center     Atomic      Atomic             Coordinates (Angstroms)
 Number     Number       Type             X           Y           Z
 ---------------------------------------------------------------------
      1          6           0        1.529294    0.462265    0.127023
      2          6           0        0.802093   -0.735638   -0.044494
      3          6           0        2.918441    0.479230    0.055986
      4          6           0        3.646481   -0.712535   -0.182450
      5          6           0        1.528051   -1.910766   -0.281406
      6          6           0        2.922800   -1.897445   -0.345423
      7          6           0       -0.679733   -0.739851    0.026906
      8          6           0       -1.438791    0.355271   -0.426035
      9          6           0       -1.388943   -1.839875    0.542225
     10          6           0       -2.780552   -1.852527    0.599530
     11          6           0       -2.827289    0.351215   -0.362360
     12          6           0       -3.533791   -0.755315    0.152782
     13          7           0        5.038137   -0.655845   -0.306640
     14          8           0       -3.559665    1.416316   -0.868112
     15          6           0       -3.738035    2.495777    0.059155
     16          7           0       -4.925449   -0.707478    0.247340
     17          1           0        0.993038    1.378478    0.345196
     18          1           0        1.003749   -2.848083   -0.442577
     19          1           0       -0.952879    1.218797   -0.871487
     20          1           0       -0.843138   -2.698479    0.922883
     21          1           0       -3.297128   -2.717931    1.008263
     22          1           0        5.449711    0.132327    0.180695
     23          1           0        5.507928   -1.521215   -0.064685
     24          1           0       -4.333932    3.252560   -0.455940
     25          1           0       -4.269539    2.161179    0.958355
     26          1           0       -2.772503    2.926950    0.350252
     27          1           0       -5.340973   -0.062810   -0.416656
     28          1           0       -5.378967   -1.613703    0.215975
     29          8           0        3.700561    1.594862    0.222607
     30          6           0        3.059319    2.831643    0.514560
     31          1           0        3.464758   -2.820702   -0.537492
     32          1           0        3.858327    3.568368    0.611053
     33          1           0        2.383039    3.131243   -0.295341
     34          1           0        2.496469    2.778166    1.454641
 ---------------------------------------------------------------------

 SCF Done:  E(RHF) =  -798.060532673     A.U. after   15 cycles

 The electronic state is 1-A.
 Alpha  occ. eigenvalues --  -20.58801 -20.57593 -15.56279 -15.55597 -11.28911
 Alpha  occ. eigenvalues --  -11.28734 -11.27976 -11.27872 -11.27266 -11.26799
 Alpha  occ. eigenvalues --  -11.23367 -11.23297 -11.23034 -11.23012 -11.22853
 Alpha  occ. eigenvalues --  -11.22674 -11.22458 -11.22340  -1.40155  -1.38582
 Alpha  occ. eigenvalues --   -1.21295  -1.20764  -1.14136  -1.10565  -1.01772
 Alpha  occ. eigenvalues --   -1.01027  -1.00313  -0.96339  -0.93530  -0.92023
 Alpha  occ. eigenvalues --   -0.83914  -0.82295  -0.80942  -0.77389  -0.71520
 Alpha  occ. eigenvalues --   -0.70127  -0.68753  -0.68048  -0.67551  -0.65633
 Alpha  occ. eigenvalues --   -0.64988  -0.62811  -0.62286  -0.61986  -0.61521
 Alpha  occ. eigenvalues --   -0.59680  -0.58773  -0.58654  -0.56482  -0.55265
 Alpha  occ. eigenvalues --   -0.53539  -0.53354  -0.51505  -0.51324  -0.49825
 Alpha  occ. eigenvalues --   -0.48703  -0.47921  -0.47291  -0.45899  -0.43934
 Alpha  occ. eigenvalues --   -0.42260  -0.32690  -0.32065  -0.30460  -0.24839
 Alpha virt. eigenvalues --    0.12548   0.14604   0.15847   0.20463   0.23011
 Alpha virt. eigenvalues --    0.23625   0.24277   0.25858   0.26249   0.26768
 Alpha virt. eigenvalues --    0.29190   0.30252   0.30560   0.31352   0.31968

 Mulliken charges:
               1
     1  C   -0.294559
     2  C    0.016353
     3  C    0.410502
     4  C    0.233671
     5  C   -0.222413
     6  C   -0.239529
     7  C   -0.000339
     8  C   -0.250790
     9  C   -0.211701
    10  C   -0.245306
    11  C    0.346719
    12  C    0.256193
    13  N   -0.889249
    14  O   -0.691818
    15  C   -0.171026
    16  N   -0.902087
    17  H    0.210950
    18  H    0.203616
    19  H    0.215888
    20  H    0.206799
    21  H    0.198044
    22  H    0.381330
    23  H    0.353449
    24  H    0.176137
    25  H    0.172406
    26  H    0.154435
    27  H    0.380549
    28  H    0.358914
    29  O   -0.691097
    30  C   -0.181871
    31  H    0.196677
    32  H    0.190205
    33  H    0.164807
    34  H    0.164142
 Sum of Mulliken charges =  -0.00000

 Dipole moment (field-independent basis, Debye):
    X=             -0.6880    Y=              0.7299    Z=              1.8630  Tot=              2.1159
 Quadrupole moment (field-independent basis, Debye-Ang):
   XX=            -91.9642   YY=            -86.7399   ZZ=           -114.7078
   XY=              0.8379   XZ=              7.5931   YZ=              1.8685

 ESP charges:
               1
     1  C   -0.394074
     2  C    0.105923
     3  C    0.299280
     4  C    0.229236
     5  C   -0.283633
     6  C   -0.230849
     7  C    0.069262
     8  C   -0.270641
     9  C   -0.211816
    10  C   -0.343982
    11  C    0.126656
    12  C    0.401693
    13  N   -0.890833
    14  O   -0.392392
    15  C    0.065331
    16  N   -0.926862
    17  H    0.188849
    18  H    0.173979
    19  H    0.192818
    20  H    0.161758
    21  H    0.196215
    22  H    0.354594
    23  H    0.383477
    24  H    0.066899
    25  H    0.056978
    26  H    0.044648
    27  H    0.390070
    28  H    0.376426
    29  O   -0.285199
    30  C   -0.126974
    31  H    0.175101
    32  H    0.112194
    33  H    0.099495
    34  H    0.086371
 Sum of ESP charges =  -0.00000

 Normal termination of Gaussian 16 at Fri Nov 11 10:23:22 2022.
