 Gaussian 16, Revision C.01,
 Gaussian 16:  EM64L-G16RevC.01  3-Jul-2019

 -------------------------------------------------
 # B3LYP 6-31G(d) opt freq scrf(pcm,solvent=water)
 -------------------------------------------------

 ---------------------------
 optimization of conformer 1
 ---------------------------
 Symbolic Z-matrix:
 Charge =  0 Multiplicity = 1

 SCF Done:  E(RB3LYP) =  -803.036528766     A.U. after   13 cycles
 SCF Done:  E(RB3LYP) =  -803.058377788     A.U. after   11 cycles
 SCF Done:  E(RB3LYP) =  -803.062211688     A.U. after   11 cycles
 SCF Done:  E(RB3LYP) =  -803.062843476     A.U. after   10 cycles
 SCF Done:  E(RB3LYP) =  -803.063538279     A.U. after   10 cycles
 SCF Done:  E(RB3LYP) =  -803.063667194     A.U. after   10 cycles
 SCF Done:  E(RB3LYP) =  -803.064146834     A.U. after    9 cycles
 SCF Done:  E(RB3LYP) =  -803.064238377     A.U. after   10 cycles
 SCF Done:  E(RB3LYP) =  -803.062254337     A.U. after   12 cycles
 SCF Done:  E(RB3LYP) =  -803.065453062     A.U. after   10 cycles
 SCF Done:  E(RB3LYP) =  -803.068002389     A.U. after    9 cycles
 SCF Done:  E(RB3LYP) =  -803.068019483     A.U. after    9 cycles
 SCF Done:  E(RB3LYP) =  -803.068033882     A.U. after    8 cycles
 SCF Done:  E(RB3LYP) =  -803.068041074     A.U. after    9 cycles
 SCF Done:  E(RB3LYP) =  -803.068046093     A.U. after    9 cycles
 SCF Done:  E(RB3LYP) =  -803.068047515     A.U. after    8 cycles
 SCF Done:  E(RB3LYP) =  -803.068047719     A.U. after    8 cycles
 SCF Done:  E(RB3LYP) =  -803.068047835     A.U. after    6 cycles
 SCF Done:  E(RB3LYP) =  -803.068047896     A.U. after    7 cycles
 Optimization completed.
    -- Stationary point found.
 Normal termination of Gaussian 16 at Fri Oct 28 13:53:49 2022.

 --------------------------------------------------------------------
 #N Geom=AllCheck Guess=TCheck SCRF=Check GenChk RB3LYP/6-31G(d) Freq
 --------------------------------------------------------------------

 Structure from the checkpoint file:  "Conformes_1_MM_water.chk"
 ---------------------------
 optimization of conformer 1
 ---------------------------
 Charge =  0 Multiplicity = 1

                         Standard orientation:
 ---------------------------------------------------------------------
 Center     Atomic      Atomic             Coordinates (Angstroms)
 Number     Number       Type             X           Y           Z
 ---------------------------------------------------------------------
      1          6           0       -1.765252    0.616279    0.142487
      2          6           0       -0.760917   -0.287190   -0.267593
      3          6           0       -3.104019    0.239820    0.175358
      4          6           0       -3.498881   -1.068028   -0.199915
      5          6           0       -1.158350   -1.578093   -0.641116
      6          6           0       -2.501238   -1.959002   -0.606344
      7          6           0        0.662937    0.128425   -0.303139
      8          6           0        1.696112   -0.784453   -0.020194
      9          6           0        1.042555    1.443353   -0.627078
     10          6           0        2.380218    1.830451   -0.669483
     11          6           0        3.031737   -0.403455   -0.061187
     12          6           0        3.407314    0.917036   -0.385634
     13          7           0       -4.843186   -1.437662   -0.093061
     14          8           0        4.034555   -1.331873    0.181102
     15          6           0        4.394693   -1.455071    1.564244
     16          7           0        4.755173    1.279135   -0.366879
     17          1           0       -1.481273    1.612999    0.459381
     18          1           0       -0.419087   -2.291983   -0.992409
     19          1           0        1.468059   -1.811656    0.249775
     20          1           0        0.280673    2.174389   -0.882739
     21          1           0        2.639171    2.852485   -0.936703
     22          1           0       -5.479632   -0.651505   -0.164159
     23          1           0       -5.114916   -2.186062   -0.720920
     24          1           0        5.194151   -2.197875    1.612013
     25          1           0        4.757316   -0.501086    1.965597
     26          1           0        3.541169   -1.797660    2.161800
     27          1           0        5.375349    0.493011   -0.530025
     28          1           0        4.986460    2.062358   -0.967673
     29          8           0       -4.139878    1.053011    0.562335
     30          6           0       -3.847720    2.405778    0.895275
     31          1           0       -2.786535   -2.963781   -0.909837
     32          1           0       -4.806205    2.870190    1.132212
     33          1           0       -3.187496    2.468595    1.768990
     34          1           0       -3.383671    2.933056    0.052699
 ---------------------------------------------------------------------

 SCF Done:  E(RB3LYP) =  -803.068047896     A.U. after    1 cycles

 The electronic state is 1-A.
 Alpha  occ. eigenvalues --  -19.17955 -19.16464 -14.33727 -14.33489 -10.24232
 Alpha  occ. eigenvalues --  -10.23551 -10.23380 -10.23028 -10.22618 -10.22401
 Alpha  occ. eigenvalues --  -10.19134 -10.19045 -10.18595 -10.18569 -10.18475
 Alpha  occ. eigenvalues --  -10.18431 -10.18256 -10.18086  -1.06267  -1.04692
 Alpha  occ. eigenvalues --   -0.91264  -0.91127  -0.85154  -0.82457  -0.75701
 Alpha  occ. eigenvalues --   -0.74828  -0.74245  -0.71391  -0.68662  -0.68055
 Alpha  occ. eigenvalues --   -0.61934  -0.61206  -0.59080  -0.57146  -0.53421
 Alpha  occ. eigenvalues --   -0.51937  -0.51231  -0.50549  -0.49644  -0.48729
 Alpha  occ. eigenvalues --   -0.46548  -0.45687  -0.45251  -0.44894  -0.44451
 Alpha  occ. eigenvalues --   -0.43307  -0.42870  -0.42231  -0.40811  -0.39909
 Alpha  occ. eigenvalues --   -0.38919  -0.37826  -0.36375  -0.36208  -0.34896
 Alpha  occ. eigenvalues --   -0.33537  -0.33177  -0.32573  -0.31814  -0.29483
 Alpha  occ. eigenvalues --   -0.27421  -0.24363  -0.23444  -0.21424  -0.18037
 Alpha virt. eigenvalues --   -0.01235   0.00009   0.01146   0.04788   0.08724
 Alpha virt. eigenvalues --    0.09170   0.10326   0.11142   0.11677   0.12296
 Alpha virt. eigenvalues --    0.13912   0.14404   0.15041   0.15674   0.16309

 Mulliken charges:
               1
     1  C   -0.282671
     2  C    0.077390
     3  C    0.344602
     4  C    0.245934
     5  C   -0.210252
     6  C   -0.207651
     7  C    0.073064
     8  C   -0.244599
     9  C   -0.201353
    10  C   -0.212277
    11  C    0.295644
    12  C    0.276492
    13  N   -0.809028
    14  O   -0.555578
    15  C   -0.217571
    16  N   -0.811586
    17  H    0.150464
    18  H    0.135871
    19  H    0.140925
    20  H    0.139505
    21  H    0.142395
    22  H    0.343669
    23  H    0.340052
    24  H    0.168920
    25  H    0.157180
    26  H    0.155714
    27  H    0.343041
    28  H    0.342969
    29  O   -0.543160
    30  C   -0.224294
    31  H    0.138436
    32  H    0.178401
    33  H    0.165157
    34  H    0.164195
 Sum of Mulliken charges =  -0.00000

 Dipole moment (field-independent basis, Debye):
    X=              0.1517    Y=              2.2185    Z=             -0.8422  Tot=              2.3778
 Quadrupole moment (field-independent basis, Debye-Ang):
   XX=            -78.9425   YY=            -90.9698   ZZ=           -104.7163
   XY=             -0.6370   XZ=              4.9200   YZ=             -0.2381

  Exact polarizability:     371.128      24.734     240.774      -4.411       1.764     107.239
 Approx polarizability:     409.480      25.836     289.843      -9.092       4.126     127.941

                      1                      2                      3
                      A                      A                      A
 Frequencies --     32.5933                43.7584                65.7211
 Red. masses --      3.9477                 3.1842                 4.0246
 Frc consts  --      0.0025                 0.0036                 0.0102
 IR Inten    --      0.5847                 4.6559                 3.0240

                      4                      5                      6
                      A                      A                      A
 Frequencies --     78.0259                89.4823               145.2230
 Red. masses --      4.4633                 3.4022                 3.4391
 Frc consts  --      0.0160                 0.0161                 0.0427
 IR Inten    --      0.4277                 6.8993                 1.5300

                      7                      8                      9
                      A                      A                      A
 Frequencies --    153.5164               169.6772               193.9733
 Red. masses --      3.9059                 1.2112                 2.5585
 Frc consts  --      0.0542                 0.0205                 0.0567
 IR Inten    --      5.4837                 0.8044                 4.7724

                     10                     11                     12
                      A                      A                      A
 Frequencies --    204.8525               250.4799               266.1633
 Red. masses --      2.6815                 1.8394                 4.7712
 Frc consts  --      0.0663                 0.0680                 0.1991
 IR Inten    --      4.8732                 0.7370                 4.2107

                     13                     14                     15
                      A                      A                      A
 Frequencies --    294.6609               300.8824               311.3461
 Red. masses --      2.3382                 3.2599                 3.2286
 Frc consts  --      0.1196                 0.1739                 0.1844
 IR Inten    --      2.4584                 8.6220                21.6696

                     16                     17                     18
                      A                      A                      A
 Frequencies --    329.7390               354.2194               367.8582
 Red. masses --      1.2444                 3.6387                 1.2336
 Frc consts  --      0.0797                 0.2690                 0.0984
 IR Inten    --     41.4092                 7.1789                41.5295

                     19                     20                     21
                      A                      A                      A
 Frequencies --    382.1552               407.4655               460.3181
 Red. masses --      3.8444                 4.0639                 3.3175
 Frc consts  --      0.3308                 0.3975                 0.4142
 IR Inten    --      5.8576                11.1146                13.6548

                     22                     23                     24
                      A                      A                      A
 Frequencies --    470.5761               503.3208               526.7041
 Red. masses --      3.6449                 3.6296                 5.5797
 Frc consts  --      0.4755                 0.5418                 0.9120
 IR Inten    --     12.8090                 8.1785                30.5551

                     25                     26                     27
                      A                      A                      A
 Frequencies --    551.3738               561.1213               595.8749
 Red. masses --      3.6866                 4.8476                 6.6995
 Frc consts  --      0.6603                 0.8993                 1.4015
 IR Inten    --      6.2213                13.0497                91.0142

                     28                     29                     30
                      A                      A                      A
 Frequencies --    622.8040               659.9760               669.1991
 Red. masses --      4.1841                 2.5671                 2.7095
 Frc consts  --      0.9562                 0.6588                 0.7149
 IR Inten    --     58.4328               290.9913               189.9303

                     31                     32                     33
                      A                      A                      A
 Frequencies --    677.6012               695.4469               727.9940
 Red. masses --      1.8637                 2.5961                 3.7759
 Frc consts  --      0.5042                 0.7398                 1.1790
 IR Inten    --    598.3114                76.4489               105.0032

                     34                     35                     36
                      A                      A                      A
 Frequencies --    751.6697               784.1556               807.1452
 Red. masses --      3.7690                 4.8472                 2.5548
 Frc consts  --      1.2547                 1.7561                 0.9807
 IR Inten    --     67.2257                35.7313                15.8253

                     37                     38                     39
                      A                      A                      A
 Frequencies --    830.1153               835.2536               862.5297
 Red. masses --      1.7242                 1.5888                 3.4909
 Frc consts  --      0.7000                 0.6531                 1.5302
 IR Inten    --     70.9389                53.9482                35.1002

                     40                     41                     42
                      A                      A                      A
 Frequencies --    873.7199               904.8475               929.8840
 Red. masses --      1.5209                 1.4296                 1.2789
 Frc consts  --      0.6841                 0.6896                 0.6515
 IR Inten    --     38.3851                 8.4251                 1.0171

                     43                     44                     45
                      A                      A                      A
 Frequencies --    942.5510               947.1743              1036.1245
 Red. masses --      4.5252                 1.2882                 6.1959
 Frc consts  --      2.3686                 0.6809                 3.9190
 IR Inten    --      6.2596                 0.2151               112.6417

                     46                     47                     48
                      A                      A                      A
 Frequencies --   1060.3360              1075.1701              1095.9605
 Red. masses --      4.5115                 2.1578                 1.7456
 Frc consts  --      2.9886                 1.4696                 1.2353
 IR Inten    --     53.4636                14.2263                17.6329

                     49                     50                     51
                      A                      A                      A
 Frequencies --   1109.2435              1180.8480              1182.8169
 Red. masses --      1.7101                 1.4116                 1.3057
 Frc consts  --      1.2397                 1.1597                 1.0763
 IR Inten    --     31.8210                47.2579                28.0346

                     52                     53                     54
                      A                      A                      A
 Frequencies --   1183.1858              1186.7235              1196.1301
 Red. masses --      1.2784                 1.2551                 1.4976
 Frc consts  --      1.0545                 1.0415                 1.2624
 IR Inten    --      0.5328                33.1919                50.7933

                     55                     56                     57
                      A                      A                      A
 Frequencies --   1214.7626              1229.1855              1251.3398
 Red. masses --      1.5245                 1.6596                 3.4081
 Frc consts  --      1.3254                 1.4774                 3.1442
 IR Inten    --     43.8796                20.6316               409.6871

                     58                     59                     60
                      A                      A                      A
 Frequencies --   1284.4523              1306.9136              1313.8657
 Red. masses --      1.8469                 1.8880                 3.3068
 Frc consts  --      1.7953                 1.8999                 3.3633
 IR Inten    --     17.8292                20.0426               391.1710

                     61                     62                     63
                      A                      A                      A
 Frequencies --   1332.4827              1343.5075              1371.0006
 Red. masses --      3.0638                 2.2207                 2.6841
 Frc consts  --      3.2051                 2.3617                 2.9726
 IR Inten    --     30.4350                10.3474                30.6771

                     64                     65                     66
                      A                      A                      A
 Frequencies --   1390.3845              1441.5052              1477.1331
 Red. masses --      3.4190                 4.0872                 2.1840
 Frc consts  --      3.8942                 5.0039                 2.8077
 IR Inten    --     27.1092                20.0520                11.9399

                     67                     68                     69
                      A                      A                      A
 Frequencies --   1495.2682              1506.2229              1508.4108
 Red. masses --      1.2354                 1.5181                 1.0621
 Frc consts  --      1.6274                 2.0293                 1.4238
 IR Inten    --     30.7744                 4.9408                 5.7403

                     70                     71                     72
                      A                      A                      A
 Frequencies --   1511.1202              1524.3800              1526.0571
 Red. masses --      1.0529                 1.0507                 1.0774
 Frc consts  --      1.4165                 1.4385                 1.4783
 IR Inten    --     10.1900                12.3832                90.9999

                     73                     74                     75
                      A                      A                      A
 Frequencies --   1546.9148              1571.7895              1617.9685
 Red. masses --      2.6512                 3.1149                 5.4885
 Frc consts  --      3.7379                 4.5340                 8.4653
 IR Inten    --    585.2807                28.8003                60.7486

                     76                     77                     78
                      A                      A                      A
 Frequencies --   1634.4382              1647.7531              1651.7071
 Red. masses --      6.0712                 2.2952                 1.7512
 Frc consts  --      9.5557                 3.6716                 2.8149
 IR Inten    --     16.7085                11.2870                20.4447

                     79                     80                     81
                      A                      A                      A
 Frequencies --   1672.7606              1676.9982              3036.0491
 Red. masses --      1.6743                 2.1615                 1.0335
 Frc consts  --      2.7603                 3.5815                 5.6126
 IR Inten    --     52.4740               241.7986                68.0837

                     82                     83                     84
                      A                      A                      A
 Frequencies --   3036.3098              3098.0049              3101.1927
 Red. masses --      1.0315                 1.1072                 1.1074
 Frc consts  --      5.6030                 6.2607                 6.2748
 IR Inten    --     74.8128                56.1611                54.7318

                     85                     86                     87
                      A                      A                      A
 Frequencies --   3151.7295              3163.2786              3179.3856
 Red. masses --      1.1029                 1.1012                 1.0879
 Frc consts  --      6.4551                 6.4925                 6.4796
 IR Inten    --     50.4967                35.6054                47.0287

                     88                     89                     90
                      A                      A                      A
 Frequencies --   3179.8648              3198.8289              3200.5709
 Red. masses --      1.0877                 1.0917                 1.0929
 Frc consts  --      6.4801                 6.5817                 6.5960
 IR Inten    --     22.8329                 6.9801                27.4990

                     91                     92                     93
                      A                      A                      A
 Frequencies --   3205.0757              3227.5033              3535.2907
 Red. masses --      1.0911                 1.0888                 1.0482
 Frc consts  --      6.6040                 6.6827                 7.7187
 IR Inten    --     23.1812                 9.4702                40.8892

                     94                     95                     96
                      A                      A                      A
 Frequencies --   3537.5923              3634.2919              3636.0320
 Red. masses --      1.0483                 1.0978                 1.0977
 Frc consts  --      7.7293                 8.5428                 8.5507
 IR Inten    --     37.0225                29.7682                27.9187

 - Thermochemistry -
 -------------------
 Temperature   298.150 Kelvin.  Pressure   1.00000 Atm.
 Atom     1 has atomic number  6 and mass  12.00000

 Molecular mass:   244.12118 amu.
 Principal axes and moments of inertia in atomic units:
                           1         2         3
     Eigenvalues --  1927.503159597.60703**********
           X            0.99998  -0.00546   0.00435
           Y            0.00546   0.99998  -0.00155
           Z           -0.00435   0.00158   0.99999
 This molecule is an asymmetric top.
 Rotational symmetry number  1.
 Warning -- assumption of classical behavior for rotation
           may cause significant error
 Rotational temperatures (Kelvin)      0.04494     0.00902     0.00797
 Rotational constants (GHZ):           0.93631     0.18804     0.16606
 Zero-point vibrational energy     736355.4 (Joules/Mol)
                                  175.99317 (Kcal/Mol)
 Warning -- explicit consideration of  27 degrees of freedom as
           vibrations may cause significant error
 Vibrational temperatures:     46.89    62.96    94.56   112.26   128.75
          (Kelvin)            208.94   220.88   244.13   279.08   294.74
                              360.38   382.95   423.95   432.90   447.96
                              474.42   509.64   529.27   549.84   586.25
                              662.30   677.05   724.17   757.81   793.30
                              807.33   857.33   896.08   949.56   962.83
                              974.92  1000.59  1047.42  1081.49  1128.22
                             1161.30  1194.35  1201.74  1240.99  1257.09
                             1301.87  1337.90  1356.12  1362.77  1490.75
                             1525.59  1546.93  1576.84  1595.95  1698.98
                             1701.81  1702.34  1707.43  1720.96  1747.77
                             1768.52  1800.40  1848.04  1880.36  1890.36
                             1917.15  1933.01  1972.56  2000.45  2074.00
                             2125.27  2151.36  2167.12  2170.27  2174.16
                             2193.24  2195.66  2225.67  2261.45  2327.90
                             2351.59  2370.75  2376.44  2406.73  2412.83
                             4368.20  4368.57  4457.34  4461.92  4534.64
                             4551.25  4574.43  4575.12  4602.40  4604.91
                             4611.39  4643.66  5086.49  5089.81  5228.94
                             5231.44

 Zero-point correction=                           0.280463 (Hartree/Particle)
 Thermal correction to Energy=                    0.297600
 Thermal correction to Enthalpy=                  0.298544
 Thermal correction to Gibbs Free Energy=         0.235388
 Sum of electronic and zero-point Energies=           -802.787585
 Sum of electronic and thermal Energies=              -802.770448
 Sum of electronic and thermal Enthalpies=            -802.769504
 Sum of electronic and thermal Free Energies=         -802.832660

                     E (Thermal)             CV                S
                      KCal/Mol        Cal/Mol-Kelvin    Cal/Mol-Kelvin
 Total                  186.747             66.253            132.923
 Electronic               0.000              0.000              0.000
 Translational            0.889              2.981             42.378
 Rotational               0.889              2.981             33.663
 Vibrational            184.969             60.291             56.881
 Vibration     1          0.594              1.983              5.665
 Vibration     2          0.595              1.980              5.081
 Vibration     3          0.597              1.971              4.278
 Vibration     4          0.599              1.964              3.940
 Vibration     5          0.602              1.957              3.671
 Vibration     6          0.617              1.908              2.734
 Vibration     7          0.619              1.899              2.628
 Vibration     8          0.625              1.880              2.439
 Vibration     9          0.635              1.848              2.190
 Vibration    10          0.640              1.833              2.089
 Vibration    11          0.663              1.762              1.727
 Vibration    12          0.672              1.735              1.621
 Vibration    13          0.689              1.684              1.447
 Vibration    14          0.693              1.672              1.412
 Vibration    15          0.700              1.652              1.355
 Vibration    16          0.713              1.616              1.261
 Vibration    17          0.730              1.567              1.147
 Vibration    18          0.740              1.538              1.089
 Vibration    19          0.752              1.508              1.031
 Vibration    20          0.772              1.454              0.936
 Vibration    21          0.818              1.338              0.765
 Vibration    22          0.828              1.315              0.736
 Vibration    23          0.859              1.243              0.650
 Vibration    24          0.882              1.191              0.595
 Vibration    25          0.907              1.137              0.541
 Vibration    26          0.917              1.115              0.522
 Vibration    27          0.954              1.041              0.457

 Optimization completed.
    -- Stationary point found.
 Normal termination of Gaussian 16 at Fri Oct 28 14:16:12 2022.
