 Gaussian 16, Revision C.01,
 Gaussian 16:  EM64L-G16RevC.01  3-Jul-2019

 ----------------------------------------------------------------------
 #HF 6-31g(d) scf=nosymm test pop=MK iop(6/33=2) iop(6/42=6) geom=dista
 nce
 ----------------------------------------------------------------------

 ---------------
 conformer 3 ESP
 ---------------
 Symbolic Z-matrix:
 Charge =  0 Multiplicity = 1

                         Standard orientation:
 ---------------------------------------------------------------------
 Center     Atomic      Atomic             Coordinates (Angstroms)
 Number     Number       Type             X           Y           Z
 ---------------------------------------------------------------------
      1          6           0        1.506896    0.544462    0.141028
      2          6           0        0.734944   -0.607233   -0.099906
      3          6           0        2.883230    0.547311   -0.050103
      4          6           0        3.563833   -0.606562   -0.492429
      5          6           0        1.417496   -1.754572   -0.542023
      6          6           0        2.797022   -1.756838   -0.735490
      7          6           0       -0.734879   -0.607224    0.099914
      8          6           0       -1.506829    0.544457   -0.141106
      9          6           0       -1.417430   -1.754524    0.542122
     10          6           0       -2.796956   -1.756765    0.735613
     11          6           0       -2.883160    0.547326    0.050025
     12          6           0       -3.563761   -0.606509    0.492462
     13          7           0        4.952746   -0.583742   -0.625381
     14          8           0       -3.617650    1.706691   -0.155168
     15          6           0       -4.088404    1.869069   -1.500707
     16          7           0       -4.952681   -0.583649    0.625434
     17          1           0        1.041489    1.459786    0.495660
     18          1           0        0.857670   -2.657214   -0.769856
     19          1           0       -1.041425    1.459750   -0.495823
     20          1           0       -0.857605   -2.657148    0.770027
     21          1           0       -3.291328   -2.657883    1.091165
     22          1           0        5.316442    0.347677   -0.796778
     23          1           0        5.321204   -1.252725   -1.292156
     24          1           0       -4.657835    2.801001   -1.520030
     25          1           0       -3.248900    1.938821   -2.203058
     26          1           0       -4.738620    1.036762   -1.795776
     27          1           0       -5.316329    0.347728    0.797170
     28          1           0       -5.321140   -1.252832    1.292010
     29          8           0        3.617756    1.706672    0.155005
     30          6           0        4.087988    1.869448    1.500676
     31          1           0        3.291400   -2.657990   -1.090945
     32          1           0        4.657544    2.801305    1.519909
     33          1           0        3.248218    1.939556    2.202673
     34          1           0        4.737968    1.037148    1.796293
 ---------------------------------------------------------------------

 SCF Done:  E(RHF) =  -798.061132859     A.U. after   15 cycles

 The electronic state is 1-A.
 Alpha  occ. eigenvalues --  -20.57419 -20.57418 -15.56321 -15.56320 -11.27799
 Alpha  occ. eigenvalues --  -11.27799 -11.27661 -11.27661 -11.27252 -11.27251
 Alpha  occ. eigenvalues --  -11.23362 -11.23294 -11.23031 -11.23029 -11.22933
 Alpha  occ. eigenvalues --  -11.22931 -11.22664 -11.22663  -1.38412  -1.38410
 Alpha  occ. eigenvalues --   -1.21341  -1.21274  -1.14232  -1.10690  -1.01683
 Alpha  occ. eigenvalues --   -1.00967  -1.00239  -0.95570  -0.92607  -0.91779
 Alpha  occ. eigenvalues --   -0.84266  -0.82260  -0.81406  -0.77140  -0.70996
 Alpha  occ. eigenvalues --   -0.70160  -0.68662  -0.68125  -0.67707  -0.65378
 Alpha  occ. eigenvalues --   -0.62741  -0.62360  -0.62239  -0.61899  -0.61413
 Alpha  occ. eigenvalues --   -0.59660  -0.59041  -0.58351  -0.57496  -0.55621
 Alpha  occ. eigenvalues --   -0.53463  -0.52405  -0.51278  -0.50922  -0.50265
 Alpha  occ. eigenvalues --   -0.49195  -0.47952  -0.46042  -0.44098  -0.43655
 Alpha  occ. eigenvalues --   -0.42428  -0.32805  -0.32421  -0.31192  -0.25206
 Alpha virt. eigenvalues --    0.12555   0.14416   0.15277   0.20454   0.23046
 Alpha virt. eigenvalues --    0.23141   0.25426   0.26099   0.26127   0.26967
 Alpha virt. eigenvalues --    0.29385   0.30218   0.30957   0.31460   0.31892

 Mulliken charges:
               1
     1  C   -0.248571
     2  C    0.001767
     3  C    0.345910
     4  C    0.256611
     5  C   -0.212150
     6  C   -0.245566
     7  C    0.001771
     8  C   -0.248574
     9  C   -0.212152
    10  C   -0.245571
    11  C    0.345918
    12  C    0.256600
    13  N   -0.902509
    14  O   -0.692338
    15  C   -0.174834
    16  N   -0.902501
    17  H    0.219253
    18  H    0.206157
    19  H    0.219256
    20  H    0.206157
    21  H    0.197202
    22  H    0.379992
    23  H    0.359277
    24  H    0.175191
    25  H    0.160914
    26  H    0.173698
    27  H    0.379982
    28  H    0.359277
    29  O   -0.692344
    30  C   -0.174822
    31  H    0.197206
    32  H    0.175194
    33  H    0.160915
    34  H    0.173680
 Sum of Mulliken charges =  -0.00000

 Dipole moment (field-independent basis, Debye):
    X=             -0.0005    Y=             -0.6220    Z=              0.0004  Tot=              0.6220
 Quadrupole moment (field-independent basis, Debye-Ang):
   XX=            -86.0131   YY=           -100.5633   ZZ=           -102.3315
   XY=              0.0028   XZ=             -5.0914   YZ=              0.0013

 ESP charges:
               1
     1  C   -0.285588
     2  C    0.066585
     3  C    0.151099
     4  C    0.381664
     5  C   -0.213865
     6  C   -0.338967
     7  C    0.066875
     8  C   -0.292035
     9  C   -0.211923
    10  C   -0.338443
    11  C    0.162253
    12  C    0.374497
    13  N   -0.913916
    14  O   -0.403651
    15  C    0.089614
    16  N   -0.914096
    17  H    0.192371
    18  H    0.167020
    19  H    0.193266
    20  H    0.166220
    21  H    0.193393
    22  H    0.384823
    23  H    0.375419
    24  H    0.058399
    25  H    0.046251
    26  H    0.047467
    27  H    0.385545
    28  H    0.376088
    29  O   -0.400234
    30  C    0.085470
    31  H    0.192997
    32  H    0.059659
    33  H    0.047226
    34  H    0.048517
 Sum of ESP charges =   0.00000

 Normal termination of Gaussian 16 at Fri Nov 11 10:23:58 2022.
