 Gaussian 16, Revision C.01,
 Gaussian 16:  EM64L-G16RevC.01  3-Jul-2019

 -------------------------------------------------
 # b3lyp 6-31g(d) opt freq scrf(pcm,solvent=water)
 -------------------------------------------------

 ------------------------
 conformer 2 optimization
 ------------------------
 Symbolic Z-matrix:
 Charge =  0 Multiplicity = 1

 SCF Done:  E(RB3LYP) =  -803.035594512     A.U. after   13 cycles
 SCF Done:  E(RB3LYP) =  -803.057365386     A.U. after   11 cycles
 SCF Done:  E(RB3LYP) =  -803.061439882     A.U. after   11 cycles
 SCF Done:  E(RB3LYP) =  -803.062251649     A.U. after   10 cycles
 SCF Done:  E(RB3LYP) =  -803.063378874     A.U. after   11 cycles
 SCF Done:  E(RB3LYP) =  -803.064070818     A.U. after   10 cycles
 SCF Done:  E(RB3LYP) =  -803.065306260     A.U. after   11 cycles
 SCF Done:  E(RB3LYP) =  -803.065683765     A.U. after    9 cycles
 SCF Done:  E(RB3LYP) =  -803.066258660     A.U. after   10 cycles
 SCF Done:  E(RB3LYP) =  -803.062715898     A.U. after   12 cycles
 SCF Done:  E(RB3LYP) =  -803.068061449     A.U. after    9 cycles
 SCF Done:  E(RB3LYP) =  -803.068068946     A.U. after    8 cycles
 SCF Done:  E(RB3LYP) =  -803.068069951     A.U. after    7 cycles
 SCF Done:  E(RB3LYP) =  -803.068072194     A.U. after    8 cycles
 SCF Done:  E(RB3LYP) =  -803.068074444     A.U. after    8 cycles
 SCF Done:  E(RB3LYP) =  -803.068076000     A.U. after    8 cycles
 SCF Done:  E(RB3LYP) =  -803.068076969     A.U. after    8 cycles
 SCF Done:  E(RB3LYP) =  -803.068077248     A.U. after    7 cycles
 SCF Done:  E(RB3LYP) =  -803.068077379     A.U. after    7 cycles
 Optimization completed.
    -- Stationary point found.
 Normal termination of Gaussian 16 at Fri Oct 28 15:11:41 2022.

 --------------------------------------------------------------------
 #N Geom=AllCheck Guess=TCheck SCRF=Check GenChk RB3LYP/6-31G(d) Freq
 --------------------------------------------------------------------

 Structure from the checkpoint file:  "Conformes_2_MM_water.chk"
 ------------------------
 conformer 2 optimization
 ------------------------
 Charge =  0 Multiplicity = 1

                         Standard orientation:
 ---------------------------------------------------------------------
 Center     Atomic      Atomic             Coordinates (Angstroms)
 Number     Number       Type             X           Y           Z
 ---------------------------------------------------------------------
      1          6           0        1.529294    0.462265    0.127023
      2          6           0        0.802093   -0.735638   -0.044494
      3          6           0        2.918441    0.479230    0.055986
      4          6           0        3.646481   -0.712535   -0.182450
      5          6           0        1.528051   -1.910766   -0.281406
      6          6           0        2.922800   -1.897445   -0.345423
      7          6           0       -0.679733   -0.739851    0.026906
      8          6           0       -1.438791    0.355271   -0.426035
      9          6           0       -1.388943   -1.839875    0.542225
     10          6           0       -2.780552   -1.852527    0.599530
     11          6           0       -2.827289    0.351215   -0.362360
     12          6           0       -3.533791   -0.755315    0.152782
     13          7           0        5.038137   -0.655845   -0.306640
     14          8           0       -3.559665    1.416316   -0.868112
     15          6           0       -3.738035    2.495777    0.059155
     16          7           0       -4.925449   -0.707478    0.247340
     17          1           0        0.993038    1.378478    0.345196
     18          1           0        1.003749   -2.848083   -0.442577
     19          1           0       -0.952879    1.218797   -0.871487
     20          1           0       -0.843138   -2.698479    0.922883
     21          1           0       -3.297128   -2.717931    1.008263
     22          1           0        5.449711    0.132327    0.180695
     23          1           0        5.507928   -1.521215   -0.064685
     24          1           0       -4.333932    3.252560   -0.455940
     25          1           0       -4.269539    2.161179    0.958355
     26          1           0       -2.772503    2.926950    0.350252
     27          1           0       -5.340973   -0.062810   -0.416656
     28          1           0       -5.378967   -1.613703    0.215975
     29          8           0        3.700561    1.594862    0.222607
     30          6           0        3.059319    2.831643    0.514560
     31          1           0        3.464758   -2.820702   -0.537492
     32          1           0        3.858327    3.568368    0.611053
     33          1           0        2.383039    3.131243   -0.295341
     34          1           0        2.496469    2.778166    1.454641
 ---------------------------------------------------------------------

 SCF Done:  E(RB3LYP) =  -803.068077379     A.U. after    1 cycles

 The electronic state is 1-A.
 Alpha  occ. eigenvalues --  -19.17963 -19.16488 -14.33687 -14.33487 -10.24240
 Alpha  occ. eigenvalues --  -10.23556 -10.23394 -10.23067 -10.22609 -10.22404
 Alpha  occ. eigenvalues --  -10.19135 -10.19044 -10.18592 -10.18578 -10.18466
 Alpha  occ. eigenvalues --  -10.18436 -10.18252 -10.18089  -1.06275  -1.04720
 Alpha  occ. eigenvalues --   -0.91244  -0.91128  -0.85153  -0.82455  -0.75708
 Alpha  occ. eigenvalues --   -0.74762  -0.74349  -0.71237  -0.69129  -0.67746
 Alpha  occ. eigenvalues --   -0.62015  -0.60648  -0.59799  -0.56881  -0.53425
 Alpha  occ. eigenvalues --   -0.51969  -0.51257  -0.50353  -0.49979  -0.48293
 Alpha  occ. eigenvalues --   -0.46553  -0.45748  -0.45297  -0.45167  -0.44764
 Alpha  occ. eigenvalues --   -0.43394  -0.42417  -0.42333  -0.40684  -0.39723
 Alpha  occ. eigenvalues --   -0.38764  -0.38115  -0.36672  -0.36003  -0.34724
 Alpha  occ. eigenvalues --   -0.33832  -0.33017  -0.32629  -0.31841  -0.29432
 Alpha  occ. eigenvalues --   -0.27512  -0.24341  -0.23398  -0.21442  -0.18028
 Alpha virt. eigenvalues --   -0.01245   0.00025   0.01108   0.04725   0.08796
 Alpha virt. eigenvalues --    0.09203   0.10158   0.11323   0.11450   0.12540
 Alpha virt. eigenvalues --    0.13664   0.14414   0.15493   0.15649   0.16002

 Mulliken charges:
               1
     1  C   -0.280979
     2  C    0.077864
     3  C    0.344875
     4  C    0.245472
     5  C   -0.212424
     6  C   -0.206906
     7  C    0.072974
     8  C   -0.245091
     9  C   -0.201685
    10  C   -0.211677
    11  C    0.296684
    12  C    0.275264
    13  N   -0.809406
    14  O   -0.555892
    15  C   -0.217055
    16  N   -0.811931
    17  H    0.150285
    18  H    0.135711
    19  H    0.142105
    20  H    0.139149
    21  H    0.142375
    22  H    0.344030
    23  H    0.340214
    24  H    0.169116
    25  H    0.156714
    26  H    0.155767
    27  H    0.342946
    28  H    0.342655
    29  O   -0.543346
    30  C   -0.224148
    31  H    0.138484
    32  H    0.178462
    33  H    0.164647
    34  H    0.164750
 Sum of Mulliken charges =  -0.00000

 Dipole moment (field-independent basis, Debye):
    X=             -0.6061    Y=              1.1071    Z=              1.9491  Tot=              2.3221
 Quadrupole moment (field-independent basis, Debye-Ang):
   XX=            -80.1703   YY=            -84.5417   ZZ=           -111.9719
   XY=              1.8748   XZ=              7.9495   YZ=              1.8413

  Exact polarizability:     374.114      -0.381     244.385     -10.385      -9.628     101.114
 Approx polarizability:     413.906       1.419     287.325     -12.982     -15.698     126.432

                      1                      2                      3
                      A                      A                      A
 Frequencies --     32.4826                37.5914                58.3055
 Red. masses --      3.2292                 3.2390                 4.9797
 Frc consts  --      0.0020                 0.0027                 0.0100
 IR Inten    --      1.3226                 3.8804                 3.6243

                      4                      5                      6
                      A                      A                      A
 Frequencies --     77.6196                89.3300               145.1053
 Red. masses --      4.4348                 3.3645                 3.6705
 Frc consts  --      0.0157                 0.0158                 0.0455
 IR Inten    --      2.1684                 7.0291                 1.9461

                      7                      8                      9
                      A                      A                      A
 Frequencies --    153.0688               170.4354               187.9964
 Red. masses --      3.5351                 1.1755                 2.7434
 Frc consts  --      0.0488                 0.0201                 0.0571
 IR Inten    --      1.7394                 0.7477                 3.6090

                     10                     11                     12
                      A                      A                      A
 Frequencies --    219.5638               242.7602               265.7989
 Red. masses --      2.4241                 2.3394                 4.6901
 Frc consts  --      0.0689                 0.0812                 0.1952
 IR Inten    --      4.2623                 5.6802                 2.0327

                     13                     14                     15
                      A                      A                      A
 Frequencies --    291.1692               307.2203               311.9704
 Red. masses --      2.2977                 2.5031                 1.8985
 Frc consts  --      0.1148                 0.1392                 0.1089
 IR Inten    --      0.6571                15.0037                32.0746

                     16                     17                     18
                      A                      A                      A
 Frequencies --    328.2216               347.4961               361.2714
 Red. masses --      1.8966                 2.9944                 1.2452
 Frc consts  --      0.1204                 0.2130                 0.0958
 IR Inten    --     26.3744                11.7370                33.4317

                     19                     20                     21
                      A                      A                      A
 Frequencies --    388.3497               402.7713               462.2267
 Red. masses --      4.1019                 4.1597                 3.0681
 Frc consts  --      0.3645                 0.3976                 0.3862
 IR Inten    --      1.3816                 9.8036                28.0912

                     22                     23                     24
                      A                      A                      A
 Frequencies --    472.4608               500.6736               519.5676
 Red. masses --      4.2654                 3.2419                 5.8232
 Frc consts  --      0.5610                 0.4788                 0.9262
 IR Inten    --     21.6813                20.4014                28.7335

                     25                     26                     27
                      A                      A                      A
 Frequencies --    545.8588               573.2993               588.8332
 Red. masses --      4.0703                 4.4977                 6.3355
 Frc consts  --      0.7146                 0.8710                 1.2942
 IR Inten    --      0.3269                 4.8242               125.6228

                     28                     29                     30
                      A                      A                      A
 Frequencies --    620.1432               658.0360               672.6488
 Red. masses --      4.5457                 2.2999                 1.6807
 Frc consts  --      1.0300                 0.5868                 0.4480
 IR Inten    --     13.6650               215.4883               894.6395

                     31                     32                     33
                      A                      A                      A
 Frequencies --    678.1395               694.9447               728.9331
 Red. masses --      3.0857                 2.8382                 3.9803
 Frc consts  --      0.8361                 0.8076                 1.2461
 IR Inten    --     73.9075                11.5263               101.6944

                     34                     35                     36
                      A                      A                      A
 Frequencies --    751.5517               788.5731               810.0493
 Red. masses --      3.8411                 4.8381                 3.6856
 Frc consts  --      1.2783                 1.7726                 1.4249
 IR Inten    --     47.3516                30.1693                 6.3975

                     37                     38                     39
                      A                      A                      A
 Frequencies --    823.4292               836.5615               864.0527
 Red. masses --      1.4468                 1.5177                 4.6233
 Frc consts  --      0.5780                 0.6258                 2.0337
 IR Inten    --    108.3621                11.2583                46.1834

                     40                     41                     42
                      A                      A                      A
 Frequencies --    870.0234               905.8206               930.0400
 Red. masses --      1.4114                 1.4611                 1.3371
 Frc consts  --      0.6295                 0.7063                 0.6814
 IR Inten    --     36.1273                 7.4705                 2.0063

                     43                     44                     45
                      A                      A                      A
 Frequencies --    939.3732               947.3407              1036.5116
 Red. masses --      3.5928                 1.3079                 6.2545
 Frc consts  --      1.8679                 0.6916                 3.9590
 IR Inten    --     13.6748                 0.8945                92.8790

                     46                     47                     48
                      A                      A                      A
 Frequencies --   1060.4334              1076.2300              1095.9922
 Red. masses --      4.4653                 2.0857                 1.7367
 Frc consts  --      2.9585                 1.4233                 1.2291
 IR Inten    --     82.3031                15.6581                15.9717

                     49                     50                     51
                      A                      A                      A
 Frequencies --   1109.0394              1180.3919              1182.0257
 Red. masses --      1.7296                 1.2986                 1.2912
 Frc consts  --      1.2534                 1.0661                 1.0629
 IR Inten    --     28.9171                24.1316                26.8768

                     52                     53                     54
                      A                      A                      A
 Frequencies --   1182.9637              1186.4893              1198.4092
 Red. masses --      1.2850                 1.3504                 1.5056
 Frc consts  --      1.0595                 1.1200                 1.2740
 IR Inten    --     12.3801               160.2333                57.3525

                     55                     56                     57
                      A                      A                      A
 Frequencies --   1214.6580              1229.4759              1249.8772
 Red. masses --      1.5386                 1.6925                 3.3970
 Frc consts  --      1.3375                 1.5074                 3.1267
 IR Inten    --     36.4856                95.9023                89.2265

                     58                     59                     60
                      A                      A                      A
 Frequencies --   1283.5869              1307.4693              1316.8521
 Red. masses --      1.9029                 2.2553                 2.1616
 Frc consts  --      1.8472                 2.2715                 2.2085
 IR Inten    --    111.5635               114.1994                61.7057

                     61                     62                     63
                      A                      A                      A
 Frequencies --   1327.5600              1344.5426              1370.1020
 Red. masses --      2.4568                 3.8114                 2.6452
 Frc consts  --      2.5511                 4.0596                 2.9256
 IR Inten    --    186.8345               128.0143                21.7554

                     64                     65                     66
                      A                      A                      A
 Frequencies --   1387.9572              1448.7461              1474.0967
 Red. masses --      2.9060                 3.9453                 2.7295
 Frc consts  --      3.2983                 4.8789                 3.4946
 IR Inten    --     18.8504                51.2813                 5.1202

                     67                     68                     69
                      A                      A                      A
 Frequencies --   1496.2804              1502.1852              1508.1673
 Red. masses --      1.3086                 1.3068                 1.0503
 Frc consts  --      1.7262                 1.7374                 1.4076
 IR Inten    --     24.9045                20.8283                 7.4385

                     70                     71                     72
                      A                      A                      A
 Frequencies --   1511.1385              1524.0416              1526.0214
 Red. masses --      1.0471                 1.0502                 1.0736
 Frc consts  --      1.4088                 1.4372                 1.4731
 IR Inten    --      8.2448                14.0577                76.4223

                     73                     74                     75
                      A                      A                      A
 Frequencies --   1548.8815              1571.5863              1618.1818
 Red. masses --      2.7009                 3.1057                 5.5345
 Frc consts  --      3.8177                 4.5195                 8.5386
 IR Inten    --    546.4492                63.8531                44.6103

                     76                     77                     78
                      A                      A                      A
 Frequencies --   1634.1809              1647.7127              1651.1511
 Red. masses --      6.1289                 2.2616                 1.7531
 Frc consts  --      9.6435                 3.6176                 2.8160
 IR Inten    --     21.8398                 2.4405                36.2464

                     79                     80                     81
                      A                      A                      A
 Frequencies --   1672.8597              1676.9379              3035.7017
 Red. masses --      1.6834                 2.1674                 1.0316
 Frc consts  --      2.7757                 3.5911                 5.6010
 IR Inten    --     29.9745               257.5093                59.0436

                     82                     83                     84
                      A                      A                      A
 Frequencies --   3036.0712              3098.1114              3100.1636
 Red. masses --      1.0335                 1.1071                 1.1074
 Frc consts  --      5.6129                 6.2610                 6.2706
 IR Inten    --     83.7292                56.2265                56.4499

                     85                     86                     87
                      A                      A                      A
 Frequencies --   3151.7823              3163.3581              3179.1586
 Red. masses --      1.1028                 1.1013                 1.0877
 Frc consts  --      6.4545                 6.4928                 6.4771
 IR Inten    --     50.3579                35.4360                58.9969

                     88                     89                     90
                      A                      A                      A
 Frequencies --   3180.5706              3198.8044              3200.2009
 Red. masses --      1.0883                 1.0915                 1.0921
 Frc consts  --      6.4864                 6.5802                 6.5899
 IR Inten    --     13.9705                13.6766                 4.3751

                     91                     92                     93
                      A                      A                      A
 Frequencies --   3205.7088              3226.1083              3535.2709
 Red. masses --      1.0921                 1.0889                 1.0482
 Frc consts  --      6.6122                 6.6773                 7.7184
 IR Inten    --     39.6694                 9.0075                46.4351

                     94                     95                     96
                      A                      A                      A
 Frequencies --   3537.5593              3634.2299              3636.0202
 Red. masses --      1.0483                 1.0978                 1.0978
 Frc consts  --      7.7292                 8.5428                 8.5509
 IR Inten    --     38.7977                31.2479                28.7033

 - Thermochemistry -
 -------------------
 Temperature   298.150 Kelvin.  Pressure   1.00000 Atm.
 Atom     1 has atomic number  6 and mass  12.00000

 Molecular mass:   244.12118 amu.
 Principal axes and moments of inertia in atomic units:
                           1         2         3
     Eigenvalues --  2121.559908837.14445**********
           X            1.00000  -0.00166  -0.00057
           Y            0.00166   0.99997   0.00724
           Z            0.00055  -0.00724   0.99997
 This molecule is an asymmetric top.
 Rotational symmetry number  1.
 Warning -- assumption of classical behavior for rotation
           may cause significant error
 Rotational temperatures (Kelvin)      0.04083     0.00980     0.00812
 Rotational constants (GHZ):           0.85067     0.20422     0.16915
 Zero-point vibrational energy     736138.0 (Joules/Mol)
                                  175.94121 (Kcal/Mol)
 Warning -- explicit consideration of  28 degrees of freedom as
           vibrations may cause significant error
 Vibrational temperatures:     46.74    54.09    83.89   111.68   128.53
          (Kelvin)            208.77   220.23   245.22   270.48   315.90
                              349.28   382.43   418.93   442.02   448.86
                              472.24   499.97   519.79   558.75   579.50
                              665.04   679.77   720.36   747.54   785.37
                              824.85   847.20   892.25   946.77   967.79
                              975.69   999.87  1048.77  1081.32  1134.58
                             1165.48  1184.73  1203.63  1243.18  1251.77
                             1303.27  1338.12  1351.55  1363.01  1491.31
                             1525.73  1548.45  1576.89  1595.66  1698.32
                             1700.67  1702.02  1707.09  1724.24  1747.62
                             1768.94  1798.29  1846.80  1881.16  1894.66
                             1910.06  1934.50  1971.27  1996.96  2084.42
                             2120.90  2152.81  2161.31  2169.92  2174.19
                             2192.76  2195.60  2228.50  2261.16  2328.20
                             2351.22  2370.69  2375.64  2406.87  2412.74
                             4367.70  4368.23  4457.49  4460.44  4534.71
                             4551.37  4574.10  4576.13  4602.37  4604.38
                             4612.30  4641.65  5086.47  5089.76  5228.85
                             5231.42

 Zero-point correction=                           0.280380 (Hartree/Particle)
 Thermal correction to Energy=                    0.297559
 Thermal correction to Enthalpy=                  0.298504
 Thermal correction to Gibbs Free Energy=         0.235065
 Sum of electronic and zero-point Energies=           -802.787697
 Sum of electronic and thermal Energies=              -802.770518
 Sum of electronic and thermal Enthalpies=            -802.769574
 Sum of electronic and thermal Free Energies=         -802.833012

                     E (Thermal)             CV                S
                      KCal/Mol        Cal/Mol-Kelvin    Cal/Mol-Kelvin
 Total                  186.721             66.296            133.518
 Electronic               0.000              0.000              0.000
 Translational            0.889              2.981             42.378
 Rotational               0.889              2.981             33.658
 Vibrational            184.944             60.334             57.481
 Vibration     1          0.594              1.983              5.672
 Vibration     2          0.594              1.982              5.382
 Vibration     3          0.596              1.974              4.514
 Vibration     4          0.599              1.964              3.950
 Vibration     5          0.602              1.957              3.675
 Vibration     6          0.616              1.908              2.735
 Vibration     7          0.619              1.899              2.634
 Vibration     8          0.626              1.879              2.431
 Vibration     9          0.633              1.856              2.247
 Vibration    10          0.647              1.811              1.963
 Vibration    11          0.659              1.775              1.783
 Vibration    12          0.672              1.736              1.623
 Vibration    13          0.687              1.690              1.467
 Vibration    14          0.697              1.660              1.377
 Vibration    15          0.700              1.651              1.352
 Vibration    16          0.711              1.619              1.269
 Vibration    17          0.725              1.580              1.178
 Vibration    18          0.735              1.552              1.117
 Vibration    19          0.757              1.495              1.006
 Vibration    20          0.768              1.464              0.953
 Vibration    21          0.820              1.334              0.760
 Vibration    22          0.829              1.311              0.731
 Vibration    23          0.856              1.249              0.656
 Vibration    24          0.875              1.207              0.611
 Vibration    25          0.901              1.149              0.553
 Vibration    26          0.930              1.089              0.498
 Vibration    27          0.946              1.056              0.469
 Vibration    28          0.980              0.989              0.416

                           ! Non-Optimized Parameters !
 Normal termination of Gaussian 16 at Fri Oct 28 15:34:15 2022.
