 Gaussian 16, Revision C.01,
 Gaussian 16:  EM64L-G16RevC.01  3-Jul-2019

 -------------------------------------------------
 # b3lyp 6-31g(d) opt freq scrf(pcm,solvent=water)
 -------------------------------------------------

 ------------------------
 conformer 3 optimization
 ------------------------
 Symbolic Z-matrix:
 Charge =  0 Multiplicity = 1

 SCF Done:  E(RB3LYP) =  -803.032610445     A.U. after   13 cycles
 SCF Done:  E(RB3LYP) =  -803.055075156     A.U. after   11 cycles
 SCF Done:  E(RB3LYP) =  -803.059395826     A.U. after   10 cycles
 SCF Done:  E(RB3LYP) =  -803.060077039     A.U. after    9 cycles
 SCF Done:  E(RB3LYP) =  -803.061428325     A.U. after   10 cycles
 SCF Done:  E(RB3LYP) =  -803.062469529     A.U. after   10 cycles
 SCF Done:  E(RB3LYP) =  -803.063722232     A.U. after   10 cycles
 SCF Done:  E(RB3LYP) =  -803.064526833     A.U. after   10 cycles
 SCF Done:  E(RB3LYP) =  -803.064717516     A.U. after    9 cycles
 SCF Done:  E(RB3LYP) =  -803.064784739     A.U. after    9 cycles
 SCF Done:  E(RB3LYP) =  -803.064832395     A.U. after    9 cycles
 SCF Done:  E(RB3LYP) =  -803.064840397     A.U. after    8 cycles
 SCF Done:  E(RB3LYP) =  -803.064863704     A.U. after    9 cycles
 SCF Done:  E(RB3LYP) =  -803.064865192     A.U. after   10 cycles
 SCF Done:  E(RB3LYP) =  -803.064878983     A.U. after    9 cycles
 SCF Done:  E(RB3LYP) =  -803.064879538     A.U. after    7 cycles
 SCF Done:  E(RB3LYP) =  -803.064881990     A.U. after    8 cycles
 SCF Done:  E(RB3LYP) =  -803.064883053     A.U. after    8 cycles
 SCF Done:  E(RB3LYP) =  -803.064883075     A.U. after    7 cycles
 Optimization completed.
    -- Stationary point found.
 Normal termination of Gaussian 16 at Fri Oct 28 16:17:41 2022.

 --------------------------------------------------------------------
 #N Geom=AllCheck Guess=TCheck SCRF=Check GenChk RB3LYP/6-31G(d) Freq
 --------------------------------------------------------------------

 Structure from the checkpoint file:  "Conformes_3_MM_water.chk"
 ------------------------
 conformer 3 optimization
 ------------------------
 Charge =  0 Multiplicity = 1

                         Standard orientation:
 ---------------------------------------------------------------------
 Center     Atomic      Atomic             Coordinates (Angstroms)
 Number     Number       Type             X           Y           Z
 ---------------------------------------------------------------------
      1          6           0       -1.506896    0.544462   -0.141028
      2          6           0       -0.734944   -0.607233    0.099906
      3          6           0       -2.883230    0.547311    0.050103
      4          6           0       -3.563833   -0.606562    0.492429
      5          6           0       -1.417496   -1.754572    0.542023
      6          6           0       -2.797022   -1.756838    0.735490
      7          6           0        0.734879   -0.607224   -0.099914
      8          6           0        1.506829    0.544457    0.141106
      9          6           0        1.417430   -1.754524   -0.542122
     10          6           0        2.796956   -1.756765   -0.735613
     11          6           0        2.883160    0.547326   -0.050025
     12          6           0        3.563761   -0.606509   -0.492462
     13          7           0       -4.952746   -0.583742    0.625381
     14          8           0        3.617650    1.706691    0.155168
     15          6           0        4.088404    1.869069    1.500707
     16          7           0        4.952681   -0.583649   -0.625434
     17          1           0       -1.041489    1.459786   -0.495660
     18          1           0       -0.857670   -2.657214    0.769856
     19          1           0        1.041425    1.459750    0.495823
     20          1           0        0.857605   -2.657148   -0.770027
     21          1           0        3.291328   -2.657883   -1.091165
     22          1           0       -5.316442    0.347677    0.796778
     23          1           0       -5.321204   -1.252725    1.292156
     24          1           0        4.657835    2.801001    1.520030
     25          1           0        3.248900    1.938821    2.203058
     26          1           0        4.738620    1.036762    1.795776
     27          1           0        5.316329    0.347728   -0.797170
     28          1           0        5.321140   -1.252832   -1.292010
     29          8           0       -3.617756    1.706672   -0.155005
     30          6           0       -4.087988    1.869448   -1.500676
     31          1           0       -3.291400   -2.657990    1.090945
     32          1           0       -4.657544    2.801305   -1.519909
     33          1           0       -3.248218    1.939556   -2.202673
     34          1           0       -4.737968    1.037148   -1.796293
 ---------------------------------------------------------------------

 SCF Done:  E(RB3LYP) =  -803.064883075     A.U. after    1 cycles

 The electronic state is 1-A.
 Alpha  occ. eigenvalues --  -19.16488 -19.16487 -14.33763 -14.33763 -10.23422
 Alpha  occ. eigenvalues --  -10.23422 -10.23037 -10.23037 -10.22668 -10.22668
 Alpha  occ. eigenvalues --  -10.19223 -10.19194 -10.18642 -10.18642 -10.18638
 Alpha  occ. eigenvalues --  -10.18638 -10.18508 -10.18508  -1.04721  -1.04720
 Alpha  occ. eigenvalues --   -0.91318  -0.91278  -0.85291  -0.82584  -0.75523
 Alpha  occ. eigenvalues --   -0.74847  -0.74298  -0.70652  -0.68601  -0.67712
 Alpha  occ. eigenvalues --   -0.62336  -0.60666  -0.60140  -0.56737  -0.53036
 Alpha  occ. eigenvalues --   -0.51972  -0.51180  -0.50451  -0.50016  -0.47986
 Alpha  occ. eigenvalues --   -0.45767  -0.45676  -0.45190  -0.45030  -0.44620
 Alpha  occ. eigenvalues --   -0.43322  -0.42774  -0.42197  -0.41597  -0.40092
 Alpha  occ. eigenvalues --   -0.38231  -0.37927  -0.36513  -0.35712  -0.35579
 Alpha  occ. eigenvalues --   -0.34014  -0.33350  -0.32629  -0.29645  -0.27627
 Alpha  occ. eigenvalues --   -0.27304  -0.24547  -0.24280  -0.22082  -0.18420
 Alpha virt. eigenvalues --   -0.01345  -0.00205   0.00422   0.04603   0.08617
 Alpha virt. eigenvalues --    0.08796   0.10875   0.11183   0.11905   0.12621
 Alpha virt. eigenvalues --    0.13693   0.14452   0.14686   0.15250   0.16318

 Mulliken charges:
               1
     1  C   -0.242846
     2  C    0.073922
     3  C    0.295570
     4  C    0.277189
     5  C   -0.201347
     6  C   -0.211791
     7  C    0.073923
     8  C   -0.242848
     9  C   -0.201347
    10  C   -0.211795
    11  C    0.295575
    12  C    0.277185
    13  N   -0.811462
    14  O   -0.555486
    15  C   -0.217849
    16  N   -0.811454
    17  H    0.141912
    18  H    0.140144
    19  H    0.141908
    20  H    0.140144
    21  H    0.142986
    22  H    0.343307
    23  H    0.343367
    24  H    0.169101
    25  H    0.155824
    26  H    0.157459
    27  H    0.343308
    28  H    0.343365
    29  O   -0.555489
    30  C   -0.217845
    31  H    0.142984
    32  H    0.169104
    33  H    0.155830
    34  H    0.157452
 Sum of Mulliken charges =  -0.00000

 Dipole moment (field-independent basis, Debye):
    X=              0.0005    Y=             -0.6135    Z=             -0.0005  Tot=              0.6135
 Quadrupole moment (field-independent basis, Debye-Ang):
   XX=            -74.3170   YY=            -98.2738   ZZ=            -99.7632
   XY=             -0.0030   XZ=             -7.0486   YZ=             -0.0013

  Exact polarizability:     372.937       0.003     226.029     -26.180       0.003     114.162
 Approx polarizability:     406.236       0.003     278.732     -31.917       0.004     134.132

                      1                      2                      3
                      A                      A                      A
 Frequencies --     34.4085                42.7663                52.5112
 Red. masses --      3.7298                 3.1689                 3.0870
 Frc consts  --      0.0026                 0.0034                 0.0050
 IR Inten    --      0.9026                 4.2569                 4.4005

                      4                      5                      6
                      A                      A                      A
 Frequencies --     72.3114                82.9293               141.3111
 Red. masses --      3.9924                 4.6462                 3.3703
 Frc consts  --      0.0123                 0.0188                 0.0397
 IR Inten    --      4.8975                 0.0166                 0.9089

                      7                      8                      9
                      A                      A                      A
 Frequencies --    153.4485               159.1415               170.7343
 Red. masses --      3.2727                 3.0445                 1.0818
 Frc consts  --      0.0454                 0.0454                 0.0186
 IR Inten    --      9.2864                 2.8850                 0.8907

                     10                     11                     12
                      A                      A                      A
 Frequencies --    177.6829               245.3100               253.5330
 Red. masses --      1.2610                 4.3259                 6.0526
 Frc consts  --      0.0235                 0.1534                 0.2292
 IR Inten    --      0.2017                 1.6446                 1.0707

                     13                     14                     15
                      A                      A                      A
 Frequencies --    291.0999               307.8784               309.7171
 Red. masses --      4.2050                 3.4487                 4.0036
 Frc consts  --      0.2099                 0.1926                 0.2263
 IR Inten    --      1.5185                19.2963                 9.4616

                     16                     17                     18
                      A                      A                      A
 Frequencies --    340.6052               367.6167               369.0510
 Red. masses --      3.9206                 1.2361                 1.2694
 Frc consts  --      0.2680                 0.0984                 0.1019
 IR Inten    --     12.9807                60.5530                40.4182

                     19                     20                     21
                      A                      A                      A
 Frequencies --    381.1379               396.7456               457.7796
 Red. masses --      2.8149                 3.5763                 4.3517
 Frc consts  --      0.2409                 0.3317                 0.5373
 IR Inten    --     13.1568                 5.1720                 0.7476

                     22                     23                     24
                      A                      A                      A
 Frequencies --    469.0245               501.9676               515.8485
 Red. masses --      3.7321                 3.0578                 3.9308
 Frc consts  --      0.4837                 0.4540                 0.6163
 IR Inten    --     66.2686                 1.7368                 4.5558

                     25                     26                     27
                      A                      A                      A
 Frequencies --    556.3427               577.1642               589.5907
 Red. masses --      4.3980                 4.9489                 6.6374
 Frc consts  --      0.8020                 0.9713                 1.3594
 IR Inten    --      2.9505                 7.2437               143.4470

                     28                     29                     30
                      A                      A                      A
 Frequencies --    634.8789               667.2644               672.7894
 Red. masses --      4.4861                 2.5921                 3.0715
 Frc consts  --      1.0654                 0.6800                 0.8191
 IR Inten    --     38.4929                 9.3125                13.7487

                     31                     32                     33
                      A                      A                      A
 Frequencies --    675.1506               704.4436               747.5611
 Red. masses --      1.4993                 2.7971                 4.0985
 Frc consts  --      0.4027                 0.8178                 1.3495
 IR Inten    --   1119.2472                 0.0212               109.6814

                     34                     35                     36
                      A                      A                      A
 Frequencies --    753.7007               782.9192               804.0535
 Red. masses --      3.7347                 4.8512                 3.8391
 Frc consts  --      1.2500                 1.7520                 1.4624
 IR Inten    --      0.5209                26.0613                 9.3346

                     37                     38                     39
                      A                      A                      A
 Frequencies --    828.3487               840.5976               865.0833
 Red. masses --      1.4748                 1.5458                 4.4848
 Frc consts  --      0.5962                 0.6435                 1.9775
 IR Inten    --    108.7948                16.8557                33.2954

                     40                     41                     42
                      A                      A                      A
 Frequencies --    897.8802               909.4832               932.1273
 Red. masses --      1.3911                 1.4665                 3.9957
 Frc consts  --      0.6608                 0.7147                 2.0455
 IR Inten    --     19.9323                 7.7946                 9.8789

                     43                     44                     45
                      A                      A                      A
 Frequencies --    943.6958               950.4901              1029.4782
 Red. masses --      1.2852                 1.3557                 8.0264
 Frc consts  --      0.6744                 0.7216                 5.0119
 IR Inten    --      1.2244                 0.2850               227.0380

                     46                     47                     48
                      A                      A                      A
 Frequencies --   1041.7326              1068.5037              1095.2881
 Red. masses --      4.7575                 1.9849                 1.7769
 Frc consts  --      3.0419                 1.3352                 1.2559
 IR Inten    --     24.8786                 9.4274                 9.8114

                     49                     50                     51
                      A                      A                      A
 Frequencies --   1096.0970              1177.3857              1181.1950
 Red. masses --      1.6854                 1.7305                 1.2639
 Frc consts  --      1.1931                 1.4134                 1.0390
 IR Inten    --     22.0307               136.7139                 9.4981

                     52                     53                     54
                      A                      A                      A
 Frequencies --   1182.2398              1183.7038              1199.0425
 Red. masses --      1.2701                 1.2607                 1.3431
 Frc consts  --      1.0459                 1.0407                 1.1377
 IR Inten    --      6.8230                27.2440                 0.3177

                     55                     56                     57
                      A                      A                      A
 Frequencies --   1205.9413              1227.3976              1243.3901
 Red. masses --      1.5801                 1.6305                 2.7411
 Frc consts  --      1.3539                 1.4472                 2.4968
 IR Inten    --     61.5780                41.9905               157.1151

                     58                     59                     60
                      A                      A                      A
 Frequencies --   1280.7978              1291.8206              1312.6083
 Red. masses --      1.8849                 1.7977                 2.3456
 Frc consts  --      1.8218                 1.7675                 2.3811
 IR Inten    --     75.9519                64.0907                 5.6132

                     61                     62                     63
                      A                      A                      A
 Frequencies --   1330.0150              1345.4148              1368.0646
 Red. masses --      2.6823                 6.2882                 3.1888
 Frc consts  --      2.7956                 6.7064                 3.5163
 IR Inten    --    269.6075                82.8255                35.5836

                     64                     65                     66
                      A                      A                      A
 Frequencies --   1372.5147              1443.1894              1472.6186
 Red. masses --      2.2359                 4.0186                 2.6451
 Frc consts  --      2.4816                 4.9315                 3.3796
 IR Inten    --      4.7763                14.7087                10.1438

                     67                     68                     69
                      A                      A                      A
 Frequencies --   1496.1581              1496.3708              1508.3073
 Red. masses --      1.3754                 1.2375                 1.0503
 Frc consts  --      1.8140                 1.6326                 1.4078
 IR Inten    --     40.2900                 0.1718                11.0456

                     70                     71                     72
                      A                      A                      A
 Frequencies --   1508.3333              1524.4919              1524.5092
 Red. masses --      1.0503                 1.0502                 1.0501
 Frc consts  --      1.4079                 1.4380                 1.4379
 IR Inten    --      5.7053                12.4385                11.1629

                     73                     74                     75
                      A                      A                      A
 Frequencies --   1545.5029              1567.5654              1615.4755
 Red. masses --      2.7920                 3.1806                 5.4192
 Frc consts  --      3.9292                 4.6048                 8.3327
 IR Inten    --    587.1363                24.0569                29.3732

                     76                     77                     78
                      A                      A                      A
 Frequencies --   1628.1007              1649.7985              1652.8475
 Red. masses --      6.4282                 2.1269                 1.7044
 Frc consts  --     10.0393                 3.4109                 2.7435
 IR Inten    --     14.4138                 3.0873                33.3351

                     79                     80                     81
                      A                      A                      A
 Frequencies --   1673.9071              1678.1452              3036.4968
 Red. masses --      1.7762                 2.2424                 1.0315
 Frc consts  --      2.9323                 3.7206                 5.6034
 IR Inten    --      0.1360               298.9558               137.0426

                     82                     83                     84
                      A                      A                      A
 Frequencies --   3036.5845              3101.5440              3101.5580
 Red. masses --      1.0315                 1.1074                 1.1074
 Frc consts  --      5.6039                 6.2763                 6.2764
 IR Inten    --     10.7307                60.2546                48.4471

                     85                     86                     87
                      A                      A                      A
 Frequencies --   3152.0471              3152.0617              3179.9913
 Red. masses --      1.1030                 1.1030                 1.0875
 Frc consts  --      6.4565                 6.4565                 6.4796
 IR Inten    --     27.4364                73.1397                55.9487

                     88                     89                     90
                      A                      A                      A
 Frequencies --   3181.5060              3197.0392              3199.6072
 Red. masses --      1.0882                 1.0909                 1.0933
 Frc consts  --      6.4894                 6.5693                 6.5947
 IR Inten    --     11.2044                 6.7011                 3.1123

                     91                     92                     93
                      A                      A                      A
 Frequencies --   3203.0324              3205.3782              3535.2889
 Red. masses --      1.0898                 1.0921                 1.0482
 Frc consts  --      6.5874                 6.6110                 7.7185
 IR Inten    --     45.8892                13.0104                73.2150

                     94                     95                     96
                      A                      A                      A
 Frequencies --   3535.3974              3634.3013              3634.3283
 Red. masses --      1.0482                 1.0978                 1.0978
 Frc consts  --      7.7194                 8.5432                 8.5434
 IR Inten    --      9.5232                29.0966                32.4080

 - Thermochemistry -
 -------------------
 Temperature   298.150 Kelvin.  Pressure   1.00000 Atm.
 Atom     1 has atomic number  6 and mass  12.00000

 Molecular mass:   244.12118 amu.
 Principal axes and moments of inertia in atomic units:
                           1         2         3
     Eigenvalues --  1964.866659593.34463**********
           X            0.99998  -0.00000   0.00643
           Y            0.00000   1.00000  -0.00000
           Z           -0.00643   0.00000   0.99998
 This molecule is an asymmetric top.
 Rotational symmetry number  1.
 Warning -- assumption of classical behavior for rotation
           may cause significant error
 Rotational temperatures (Kelvin)      0.04408     0.00903     0.00810
 Rotational constants (GHZ):           0.91851     0.18812     0.16887
 Zero-point vibrational energy     735298.1 (Joules/Mol)
                                  175.74046 (Kcal/Mol)
 Warning -- explicit consideration of  27 degrees of freedom as
           vibrations may cause significant error
 Vibrational temperatures:     49.51    61.53    75.55   104.04   119.32
          (Kelvin)            203.32   220.78   228.97   245.65   255.65
                              352.95   364.78   418.83   442.97   445.61
                              490.05   528.92   530.98   548.37   570.83
                              658.64   674.82   722.22   742.19   800.45
                              830.41   848.29   913.45   960.04   967.99
                              971.39  1013.54  1075.57  1084.41  1126.45
                             1156.85  1191.81  1209.43  1244.66  1291.85
                             1308.54  1341.12  1357.77  1367.54  1481.19
                             1498.82  1537.34  1575.88  1577.04  1694.00
                             1699.48  1700.98  1703.09  1725.15  1735.08
                             1765.95  1788.96  1842.78  1858.64  1888.55
                             1913.59  1935.75  1968.34  1974.74  2076.43
                             2118.77  2152.64  2152.94  2170.12  2170.16
                             2193.40  2193.43  2223.63  2255.38  2324.31
                             2342.47  2373.69  2378.08  2408.38  2414.48
                             4368.84  4368.97  4462.43  4462.45  4535.09
                             4535.11  4575.30  4577.48  4599.83  4603.52
                             4608.45  4611.82  5086.49  5086.65  5228.95
                             5228.99

 Zero-point correction=                           0.280060 (Hartree/Particle)
 Thermal correction to Energy=                    0.297341
 Thermal correction to Enthalpy=                  0.298285
 Thermal correction to Gibbs Free Energy=         0.234489
 Sum of electronic and zero-point Energies=           -802.784823
 Sum of electronic and thermal Energies=              -802.767542
 Sum of electronic and thermal Enthalpies=            -802.766598
 Sum of electronic and thermal Free Energies=         -802.830394

                     E (Thermal)             CV                S
                      KCal/Mol        Cal/Mol-Kelvin    Cal/Mol-Kelvin
 Total                  186.584             66.287            134.270
 Electronic               0.000              0.000              0.000
 Translational            0.889              2.981             42.378
 Rotational               0.889              2.981             33.665
 Vibrational            184.807             60.326             58.227
 Vibration     1          0.594              1.983              5.558
 Vibration     2          0.595              1.980              5.127
 Vibration     3          0.596              1.977              4.720
 Vibration     4          0.598              1.967              4.089
 Vibration     5          0.600              1.961              3.820
 Vibration     6          0.615              1.912              2.786
 Vibration     7          0.619              1.899              2.629
 Vibration     8          0.621              1.892              2.560
 Vibration     9          0.626              1.879              2.427
 Vibration    10          0.628              1.870              2.353
 Vibration    11          0.660              1.771              1.764
 Vibration    12          0.665              1.757              1.706
 Vibration    13          0.687              1.690              1.468
 Vibration    14          0.698              1.659              1.374
 Vibration    15          0.699              1.655              1.364
 Vibration    16          0.720              1.594              1.209
 Vibration    17          0.740              1.539              1.090
 Vibration    18          0.741              1.536              1.084
 Vibration    19          0.751              1.510              1.035
 Vibration    20          0.763              1.477              0.975
 Vibration    21          0.816              1.344              0.773
 Vibration    22          0.826              1.319              0.740
 Vibration    23          0.857              1.246              0.653
 Vibration    24          0.871              1.215              0.620
 Vibration    25          0.912              1.126              0.531
 Vibration    26          0.934              1.081              0.491
 Vibration    27          0.947              1.054              0.468

                           ! Non-Optimized Parameters !
 Normal termination of Gaussian 16 at Fri Oct 28 16:40:01 2022.
