 Gaussian 16, Revision C.01,
 Gaussian 16:  EM64L-G16RevC.01  3-Jul-2019

 ----------------------------------------------------------------------
 # HF 6-31G* scf=nosymm test pop=MK iop(6/33=2) iop(6/42=6) geom=distan
 ce
 ----------------------------------------------------------------------

 ------------------
 ESP of conformer 1
 ------------------
 Symbolic Z-matrix:
 Charge =  0 Multiplicity = 1

                         Standard orientation:
 ---------------------------------------------------------------------
 Center     Atomic      Atomic             Coordinates (Angstroms)
 Number     Number       Type             X           Y           Z
 ---------------------------------------------------------------------
      1          6           0       -1.765252    0.616279    0.142487
      2          6           0       -0.760917   -0.287190   -0.267593
      3          6           0       -3.104019    0.239820    0.175358
      4          6           0       -3.498881   -1.068028   -0.199915
      5          6           0       -1.158350   -1.578093   -0.641116
      6          6           0       -2.501238   -1.959002   -0.606344
      7          6           0        0.662937    0.128425   -0.303139
      8          6           0        1.696112   -0.784453   -0.020194
      9          6           0        1.042555    1.443353   -0.627078
     10          6           0        2.380218    1.830451   -0.669483
     11          6           0        3.031737   -0.403455   -0.061187
     12          6           0        3.407314    0.917036   -0.385634
     13          7           0       -4.843186   -1.437662   -0.093061
     14          8           0        4.034555   -1.331873    0.181102
     15          6           0        4.394693   -1.455071    1.564244
     16          7           0        4.755173    1.279135   -0.366879
     17          1           0       -1.481273    1.612999    0.459381
     18          1           0       -0.419087   -2.291983   -0.992409
     19          1           0        1.468059   -1.811656    0.249775
     20          1           0        0.280673    2.174389   -0.882739
     21          1           0        2.639171    2.852485   -0.936703
     22          1           0       -5.479632   -0.651505   -0.164159
     23          1           0       -5.114916   -2.186062   -0.720920
     24          1           0        5.194151   -2.197875    1.612013
     25          1           0        4.757316   -0.501086    1.965597
     26          1           0        3.541169   -1.797660    2.161800
     27          1           0        5.375349    0.493011   -0.530025
     28          1           0        4.986460    2.062358   -0.967673
     29          8           0       -4.139878    1.053011    0.562335
     30          6           0       -3.847720    2.405778    0.895275
     31          1           0       -2.786535   -2.963781   -0.909837
     32          1           0       -4.806205    2.870190    1.132212
     33          1           0       -3.187496    2.468595    1.768990
     34          1           0       -3.383671    2.933056    0.052699
 ---------------------------------------------------------------------

 SCF Done:  E(RHF) =  -798.060771768     A.U. after   15 cycles

 The electronic state is 1-A.
 Alpha  occ. eigenvalues --  -20.58755 -20.57439 -15.56342 -15.55588 -11.28873
 Alpha  occ. eigenvalues --  -11.28680 -11.27824 -11.27684 -11.27273 -11.26778
 Alpha  occ. eigenvalues --  -11.23355 -11.23279 -11.23094 -11.22923 -11.22809
 Alpha  occ. eigenvalues --  -11.22720 -11.22432 -11.22310  -1.40110  -1.38427
 Alpha  occ. eigenvalues --   -1.21329  -1.20748  -1.14125  -1.10554  -1.01764
 Alpha  occ. eigenvalues --   -1.00966  -1.00288  -0.96383  -0.93075  -0.92168
 Alpha  occ. eigenvalues --   -0.83821  -0.82822  -0.80126  -0.77719  -0.71439
 Alpha  occ. eigenvalues --   -0.70098  -0.68603  -0.68298  -0.67270  -0.65905
 Alpha  occ. eigenvalues --   -0.64939  -0.62573  -0.62104  -0.61965  -0.60843
 Alpha  occ. eigenvalues --   -0.59720  -0.59179  -0.58498  -0.56590  -0.55460
 Alpha  occ. eigenvalues --   -0.53760  -0.52809  -0.51512  -0.51079  -0.50016
 Alpha  occ. eigenvalues --   -0.48433  -0.47928  -0.47300  -0.45822  -0.43873
 Alpha  occ. eigenvalues --   -0.42212  -0.32641  -0.32127  -0.30412  -0.24841
 Alpha virt. eigenvalues --    0.12580   0.14570   0.15955   0.20616   0.23066
 Alpha virt. eigenvalues --    0.23659   0.24250   0.25937   0.26279   0.26832
 Alpha virt. eigenvalues --    0.29440   0.30169   0.30678   0.31442   0.31819

 Mulliken charges:
               1
     1  C   -0.295935
     2  C    0.014016
     3  C    0.409220
     4  C    0.234058
     5  C   -0.222903
     6  C   -0.239621
     7  C   -0.000166
     8  C   -0.247730
     9  C   -0.212542
    10  C   -0.245456
    11  C    0.346533
    12  C    0.255991
    13  N   -0.888651
    14  O   -0.692366
    15  C   -0.174617
    16  N   -0.902051
    17  H    0.213872
    18  H    0.205838
    19  H    0.218839
    20  H    0.201813
    21  H    0.196352
    22  H    0.380600
    23  H    0.353431
    24  H    0.175238
    25  H    0.173294
    26  H    0.160991
    27  H    0.380067
    28  H    0.358912
    29  O   -0.690528
    30  C   -0.182043
    31  H    0.196361
    32  H    0.189909
    33  H    0.167859
    34  H    0.161413
 Sum of Mulliken charges =  -0.00000

 Dipole moment (field-independent basis, Debye):
    X=              0.3264    Y=              1.8260    Z=             -0.7582  Tot=              2.0039
 Quadrupole moment (field-independent basis, Debye-Ang):
   XX=            -90.8328   YY=            -93.7810   ZZ=           -107.2963
   XY=             -1.9569   XZ=              5.6351   YZ=             -0.2109

 ESP charges:
               1
     1  C   -0.374768
     2  C    0.085323
     3  C    0.292530
     4  C    0.214399
     5  C   -0.280937
     6  C   -0.215892
     7  C    0.090042
     8  C   -0.274856
     9  C   -0.245074
    10  C   -0.313646
    11  C    0.133286
    12  C    0.378954
    13  N   -0.887968
    14  O   -0.396105
    15  C    0.063611
    16  N   -0.917988
    17  H    0.194322
    18  H    0.161366
    19  H    0.204075
    20  H    0.165370
    21  H    0.189010
    22  H    0.354475
    23  H    0.383693
    24  H    0.066656
    25  H    0.056094
    26  H    0.050343
    27  H    0.389401
    28  H    0.374262
    29  O   -0.279246
    30  C   -0.131812
    31  H    0.173475
    32  H    0.113732
    33  H    0.100683
    34  H    0.083190
 Sum of ESP charges =   0.00000

 Normal termination of Gaussian 16 at Fri Nov 11 10:22:46 2022.
